3    
Iteration 0 Energy -76.05511513
H       -0.8110000000    0.4677000000    0.0000000000
H        0.8110000000    0.4677000000    0.0000000000
O        0.0000000000   -0.0589000000    0.0000000000
3    
Iteration 1 Energy -76.05820051
H       -0.7453957843    0.4814350098    0.0000000000
H        0.7453957843    0.4814350098   -0.0000000000
O        0.0000000000   -0.0863700196    0.0000000000
3    
Iteration 2 Energy -76.05828052
H       -0.7543718935    0.4803394459   -0.0000000000
H        0.7543718935    0.4803394459   -0.0000000000
O       -0.0000000000   -0.0841788918    0.0000000000
3    
Iteration 3 Energy -76.05828119
H       -0.7535714239    0.4804950277    0.0000000000
H        0.7535714239    0.4804950277   -0.0000000000
O       -0.0000000000   -0.0844900554    0.0000000000
